<?xml version="1.0"?>
<VTKFile type="UnstructuredGrid" version="0.1" byte_order="LittleEndian">
<UnstructuredGrid>
<Piece NumberOfPoints="       108" NumberOfCells="       188">
<Points>
<DataArray type="Float64"  NumberOfComponents="3" format="ascii">
  0.0000000000000E+00  0.0000000000000E+00  0.0000000000000E+00
  0.1000000000000E+01  0.0000000000000E+00  0.0000000000000E+00
  0.1000000000000E+01  0.1000000000000E+01  0.0000000000000E+00
  0.0000000000000E+00  0.1000000000000E+01  0.0000000000000E+00
  0.2000000000000E+00  0.1000000000000E+01  0.0000000000000E+00
  0.8000000000000E+00  0.1000000000000E+01  0.0000000000000E+00
  0.8000000000000E+00  0.2000000000000E+00  0.0000000000000E+00
  0.2000000000000E+00  0.2000000000000E+00  0.0000000000000E+00
  0.0000000000000E+00  0.2000000000000E+00  0.0000000000000E+00
  0.2000000000000E+00  0.0000000000000E+00  0.0000000000000E+00
  0.8000000000000E+00  0.0000000000000E+00  0.0000000000000E+00
  0.1000000000000E+01  0.2000000000000E+00  0.0000000000000E+00
  0.3999999999995E+00  0.0000000000000E+00  0.0000000000000E+00
  0.5999999999994E+00  0.0000000000000E+00  0.0000000000000E+00
  0.3999999999995E+00  0.2000000000000E+00  0.0000000000000E+00
  0.5999999999994E+00  0.2000000000000E+00  0.0000000000000E+00
  0.3999999999995E+00  0.1000000000000E+01  0.0000000000000E+00
  0.5999999999994E+00  0.1000000000000E+01  0.0000000000000E+00
  0.0000000000000E+00  0.3999999999995E+00  0.0000000000000E+00
  0.0000000000000E+00  0.5999999999989E+00  0.0000000000000E+00
  0.0000000000000E+00  0.7999999999995E+00  0.0000000000000E+00
  0.2000000000000E+00  0.3999999999995E+00  0.0000000000000E+00
  0.2000000000000E+00  0.5999999999989E+00  0.0000000000000E+00
  0.2000000000000E+00  0.7999999999995E+00  0.0000000000000E+00
  0.8000000000000E+00  0.3999999999995E+00  0.0000000000000E+00
  0.8000000000000E+00  0.5999999999989E+00  0.0000000000000E+00
  0.8000000000000E+00  0.7999999999995E+00  0.0000000000000E+00
  0.1000000000000E+01  0.3999999999995E+00  0.0000000000000E+00
  0.1000000000000E+01  0.5999999999989E+00  0.0000000000000E+00
  0.1000000000000E+01  0.7999999999995E+00  0.0000000000000E+00
  0.3999999999995E+00  0.7999999999995E+00  0.0000000000000E+00
  0.3999999999995E+00  0.5999999999989E+00  0.0000000000000E+00
  0.3999999999995E+00  0.3999999999995E+00  0.0000000000000E+00
  0.5999999999994E+00  0.7999999999995E+00  0.0000000000000E+00
  0.5999999999994E+00  0.5999999999989E+00  0.0000000000000E+00
  0.5999999999994E+00  0.3999999999995E+00  0.0000000000000E+00
  0.2010000000000E+00  0.8017071067807E+00  0.0000000000000E+00
  0.3987928932183E+00  0.9995000000000E+00  0.0000000000000E+00
  0.2010000000000E+00  0.9995000000000E+00  0.0000000000000E+00
  0.3994999999995E+00  0.8004999999995E+00  0.0000000000000E+00
  0.3994999999995E+00  0.9987928932188E+00  0.0000000000000E+00
  0.2012071067812E+00  0.8004999999995E+00  0.0000000000000E+00
  0.3994999999995E+00  0.6012071067801E+00  0.0000000000000E+00
  0.3994999999995E+00  0.7994999999995E+00  0.0000000000000E+00
  0.2012071067812E+00  0.7994999999995E+00  0.0000000000000E+00
  0.2010000000000E+00  0.7982928932183E+00  0.0000000000000E+00
  0.2010000000000E+00  0.6004999999989E+00  0.0000000000000E+00
  0.3987928932183E+00  0.6004999999989E+00  0.0000000000000E+00
  0.2010000000000E+00  0.4017071067807E+00  0.0000000000000E+00
  0.3987928932183E+00  0.5994999999989E+00  0.0000000000000E+00
  0.2010000000000E+00  0.5994999999989E+00  0.0000000000000E+00
  0.3994999999995E+00  0.4004999999995E+00  0.0000000000000E+00
  0.3994999999995E+00  0.5987928932177E+00  0.0000000000000E+00
  0.2012071067812E+00  0.4004999999995E+00  0.0000000000000E+00
  0.3994999999995E+00  0.2012071067812E+00  0.0000000000000E+00
  0.3994999999995E+00  0.3994999999995E+00  0.0000000000000E+00
  0.2012071067812E+00  0.3994999999995E+00  0.0000000000000E+00
  0.2010000000000E+00  0.3982928932183E+00  0.0000000000000E+00
  0.2010000000000E+00  0.2010000000000E+00  0.0000000000000E+00
  0.3982928932183E+00  0.2010000000000E+00  0.0000000000000E+00
  0.5994999999994E+00  0.8012071067807E+00  0.0000000000000E+00
  0.5994999999994E+00  0.9995000000000E+00  0.0000000000000E+00
  0.4012071067807E+00  0.9995000000000E+00  0.0000000000000E+00
  0.4004999999995E+00  0.9987928932188E+00  0.0000000000000E+00
  0.4004999999995E+00  0.8004999999995E+00  0.0000000000000E+00
  0.5987928932182E+00  0.8004999999995E+00  0.0000000000000E+00
  0.4004999999995E+00  0.6012071067801E+00  0.0000000000000E+00
  0.5987928932182E+00  0.7994999999995E+00  0.0000000000000E+00
  0.4004999999995E+00  0.7994999999995E+00  0.0000000000000E+00
  0.5994999999994E+00  0.6004999999989E+00  0.0000000000000E+00
  0.5994999999994E+00  0.7987928932183E+00  0.0000000000000E+00
  0.4012071067807E+00  0.6004999999989E+00  0.0000000000000E+00
  0.5994999999994E+00  0.4012071067807E+00  0.0000000000000E+00
  0.5994999999994E+00  0.5994999999989E+00  0.0000000000000E+00
  0.4012071067807E+00  0.5994999999989E+00  0.0000000000000E+00
  0.4004999999995E+00  0.5987928932177E+00  0.0000000000000E+00
  0.4004999999995E+00  0.4004999999995E+00  0.0000000000000E+00
  0.5987928932182E+00  0.4004999999995E+00  0.0000000000000E+00
  0.4004999999995E+00  0.2012071067812E+00  0.0000000000000E+00
  0.5987928932182E+00  0.3994999999995E+00  0.0000000000000E+00
  0.4004999999995E+00  0.3994999999995E+00  0.0000000000000E+00
  0.5994999999994E+00  0.2010000000000E+00  0.0000000000000E+00
  0.5994999999994E+00  0.3987928932183E+00  0.0000000000000E+00
  0.4017071067807E+00  0.2010000000000E+00  0.0000000000000E+00
  0.6004999999994E+00  0.8012071067807E+00  0.0000000000000E+00
  0.7987928932188E+00  0.9995000000000E+00  0.0000000000000E+00
  0.6004999999994E+00  0.9995000000000E+00  0.0000000000000E+00
  0.7990000000000E+00  0.8004999999995E+00  0.0000000000000E+00
  0.7990000000000E+00  0.9982928932188E+00  0.0000000000000E+00
  0.6012071067806E+00  0.8004999999995E+00  0.0000000000000E+00
  0.7990000000000E+00  0.6017071067801E+00  0.0000000000000E+00
  0.7990000000000E+00  0.7994999999995E+00  0.0000000000000E+00
  0.6012071067806E+00  0.7994999999995E+00  0.0000000000000E+00
  0.6004999999994E+00  0.7987928932183E+00  0.0000000000000E+00
  0.6004999999994E+00  0.6004999999989E+00  0.0000000000000E+00
  0.7987928932188E+00  0.6004999999989E+00  0.0000000000000E+00
  0.6004999999994E+00  0.4012071067807E+00  0.0000000000000E+00
  0.7987928932188E+00  0.5994999999989E+00  0.0000000000000E+00
  0.6004999999994E+00  0.5994999999989E+00  0.0000000000000E+00
  0.7990000000000E+00  0.4004999999995E+00  0.0000000000000E+00
  0.7990000000000E+00  0.5982928932177E+00  0.0000000000000E+00
  0.6012071067806E+00  0.4004999999995E+00  0.0000000000000E+00
  0.7990000000000E+00  0.2017071067812E+00  0.0000000000000E+00
  0.7990000000000E+00  0.3994999999995E+00  0.0000000000000E+00
  0.6012071067806E+00  0.3994999999995E+00  0.0000000000000E+00
  0.6004999999994E+00  0.3987928932183E+00  0.0000000000000E+00
  0.6004999999994E+00  0.2010000000000E+00  0.0000000000000E+00
  0.7982928932188E+00  0.2010000000000E+00  0.0000000000000E+00
</DataArray>
</Points>
<Cells>
<DataArray type="Int64"       Name="connectivity" format="ascii">
         7        21         8
         8        21        18
        21        22        18
        18        22        19
        22        23        19
        19        23        20
        23         4        20
        20         4         3
        36        37        38
        39        40        41
        42        43        44
        45        46        47
        48        49        50
        51        52        53
        54        55        56
        57        58        59
        60        61        62
        63        64        65
        66        67        68
        69        70        71
        72        73        74
        75        76        77
        78        79        80
        81        82        83
        84        85        86
        87        88        89
        90        91        92
        93        94        95
        96        97        98
        99       100       101
       102       103       104
       105       106       107
        11        24         6
        27        24        11
        27        25        24
        28        25        27
        28        26        25
        29        26        28
        29         5        26
         2         5        29
         0         7         8
         9         7         0
         9        12         7
         7        12        14
        12        13        14
        14        13        15
        13        10        15
        15        10         6
        10        11         6
         1        11        10
        40        37        36
        41        40        36
        23        36        38
         4        23        38
        63        40        39
        64        63        39
        43        39        41
        44        43        41
        68        43        42
        66        68        42
        47        42        44
        45        47        44
        22        46        45
        23        22        45
        49        47        46
        50        49        46
        52        49        48
        53        52        48
        21        48        50
        22        21        50
        75        52        51
        76        75        51
        55        51        53
        56        55        53
        80        55        54
        78        80        54
        59        54        56
        57        59        56
         7        58        57
        21         7        57
        14        59        58
         7        14        58
        86        61        60
        84        86        60
        65        60        62
        63        65        62
        67        65        64
        68        67        64
        70        67        66
        71        70        66
        93        70        69
        94        93        69
        73        69        71
        74        73        71
        98        73        72
        96        98        72
        77        72        74
        75        77        74
        79        77        76
        80        79        76
        82        79        78
        83        82        78
       105        82        81
       106       105        81
        15        81        83
        14        15        83
        88        85        84
        89        88        84
         5        88        87
        26         5        87
        91        87        89
        92        91        89
        26        91        90
        25        26        90
        95        90        92
        93        95        92
        97        95        94
        98        97        94
       100        97        96
       101       100        96
        25       100        99
        24        25        99
       103        99       101
       104       103       101
        24       103       102
         6        24       102
       107       102       104
       105       107       104
         6       107       106
        15         6       106
        37        40        16
        23        41        36
        40        63        16
        30        64        39
        39        43        30
        23        44        41
        43        68        30
        31        66        42
        42        47        31
        23        45        44
        47        49        31
        22        50        46
        49        52        31
        21        53        48
        52        75        31
        32        76        51
        51        55        32
        21        56        53
        55        80        32
        14        78        54
        54        59        14
        21        57        56
        61        86        17
        33        84        60
        60        65        33
        16        63        62
        65        67        33
        30        68        64
        67        70        33
        31        71        66
        70        93        33
        34        94        69
        69        73        34
        31        74        71
        73        98        34
        35        96        72
        72        77        35
        31        75        74
        77        79        35
        32        80        76
        79        82        35
        14        83        78
        82       105        35
        15       106        81
        85        88         5
        33        89        84
        87        91        26
        33        92        89
        90        95        25
        33        93        92
        95        97        25
        34        98        94
        97       100        25
        35       101        96
        99       103        24
        35       104       101
       102       107         6
        35       105       104
</DataArray>
<DataArray type="Int64"            Name="offsets" format="ascii">
           3
           6
           9
          12
          15
          18
          21
          24
          27
          30
          33
          36
          39
          42
          45
          48
          51
          54
          57
          60
          63
          66
          69
          72
          75
          78
          81
          84
          87
          90
          93
          96
          99
         102
         105
         108
         111
         114
         117
         120
         123
         126
         129
         132
         135
         138
         141
         144
         147
         150
         153
         156
         159
         162
         165
         168
         171
         174
         177
         180
         183
         186
         189
         192
         195
         198
         201
         204
         207
         210
         213
         216
         219
         222
         225
         228
         231
         234
         237
         240
         243
         246
         249
         252
         255
         258
         261
         264
         267
         270
         273
         276
         279
         282
         285
         288
         291
         294
         297
         300
         303
         306
         309
         312
         315
         318
         321
         324
         327
         330
         333
         336
         339
         342
         345
         348
         351
         354
         357
         360
         363
         366
         369
         372
         375
         378
         381
         384
         387
         390
         393
         396
         399
         402
         405
         408
         411
         414
         417
         420
         423
         426
         429
         432
         435
         438
         441
         444
         447
         450
         453
         456
         459
         462
         465
         468
         471
         474
         477
         480
         483
         486
         489
         492
         495
         498
         501
         504
         507
         510
         513
         516
         519
         522
         525
         528
         531
         534
         537
         540
         543
         546
         549
         552
         555
         558
         561
         564
</DataArray>
<DataArray type="Int64"            Name="types" format="ascii">
    5
    5
    5
    5
    5
    5
    5
    5
    5
    5
    5
    5
    5
    5
    5
    5
    5
    5
    5
    5
    5
    5
    5
    5
    5
    5
    5
    5
    5
    5
    5
    5
    5
    5
    5
    5
    5
    5
    5
    5
    5
    5
    5
    5
    5
    5
    5
    5
    5
    5
    5
    5
    5
    5
    5
    5
    5
    5
    5
    5
    5
    5
    5
    5
    5
    5
    5
    5
    5
    5
    5
    5
    5
    5
    5
    5
    5
    5
    5
    5
    5
    5
    5
    5
    5
    5
    5
    5
    5
    5
    5
    5
    5
    5
    5
    5
    5
    5
    5
    5
    5
    5
    5
    5
    5
    5
    5
    5
    5
    5
    5
    5
    5
    5
    5
    5
    5
    5
    5
    5
    5
    5
    5
    5
    5
    5
    5
    5
    5
    5
    5
    5
    5
    5
    5
    5
    5
    5
    5
    5
    5
    5
    5
    5
    5
    5
    5
    5
    5
    5
    5
    5
    5
    5
    5
    5
    5
    5
    5
    5
    5
    5
    5
    5
    5
    5
    5
    5
    5
    5
    5
    5
    5
    5
    5
    5
    5
    5
    5
    5
    5
    5
    5
    5
    5
    5
    5
    5
</DataArray>
</Cells>
<CellData>
<DataArray type="Int64" Name="Material" format="ascii">
    2
    2
    2
    2
    2
    2
    2
    2
    1
    1
    1
    1
    1
    1
    1
    1
    1
    1
    1
    1
    1
    1
    1
    1
    1
    1
    1
    1
    1
    1
    1
    1
    2
    2
    2
    2
    2
    2
    2
    2
    2
    2
    2
    2
    2
    2
    2
    2
    2
    2
    3
    3
    4
    4
    3
    3
    3
    3
    3
    3
    3
    3
    4
    4
    3
    3
    3
    3
    4
    4
    3
    3
    3
    3
    3
    3
    3
    3
    4
    4
    4
    4
    3
    3
    3
    3
    3
    3
    3
    3
    3
    3
    3
    3
    3
    3
    3
    3
    3
    3
    3
    3
    3
    3
    4
    4
    3
    3
    4
    4
    3
    3
    4
    4
    3
    3
    3
    3
    3
    3
    4
    4
    3
    3
    4
    4
    3
    3
    4
    4
    5
    5
    5
    5
    5
    5
    5
    5
    5
    5
    5
    5
    5
    5
    5
    5
    5
    5
    5
    5
    5
    5
    5
    5
    5
    5
    5
    5
    5
    5
    5
    5
    5
    5
    5
    5
    5
    5
    5
    5
    5
    5
    5
    5
    5
    5
    5
    5
    5
    5
    5
    5
    5
    5
    5
    5
    5
    5
</DataArray>
</CellData>
</Piece>
</UnstructuredGrid>
</VTKFile>
